<?xml version="1.0"?>
<VTKFile type="UnstructuredGrid" version="0.1" byte_order="LittleEndian">
  <UnstructuredGrid>
    <Piece NumberOfCells="1000" NumberOfPoints="1331">
      <CellData Scalars="x^tracer_0">
        <DataArray type="Float32" Name="x^tracer_0" NumberOfComponents="1" format="ascii">
          0 0 0 0 0 0 0 0 0 0 0 0
          0 0 0 0 0 0 0 0 0 0 0 0
          0 0 0 0 0 0 0 0 0 0 0 0
          0 0 0 0 0 0 0 0 0 0 0 0
          0 0 0 0 0 0 0 0 0 0 0 0
          0 0 0 0 0 0 0 0 0 0 0 0
          0 0 0 0 0 0 0 0 0 0 0 0
          0 0 0 0 0 0 0 0 0 0 0 0
          0 0 0 0 0 0 0 0 0 0 0 0
          0 0 0 0 0 0 0 0 0 0 0 0
          0 0 0 0 0 0 0 0 0 0 0 0
          0 0 0 0 0 0 0 0 0 0 0 0
          0 0 0 0 0 0 0 0 0 0 0 0
          0 0 0 0 0 0 0 0 0 0 0 0
          0 0 0 0 0 0 0 0 0 0 0 0
          0 0 0 0 0 0 0 0 0 0 0 0
          0 0 0 0 0 0 0 0 0 0 0 0
          0 0 0 0 0 0 0 0 0 0 0 0
          0 0 0 0 0 0 0 0 0 0 0 0
          0 0 0 0 0 0 0 0 0 0 0 0
          0 0 0 0 0 0 0 0 0 0 0 0
          0 0 0 0 0 0 0 0 0 0 0 0
          0 0 0 0 0 0 0 0 0 0 0 0
          0 0 0 0 0 0 0 0 0 0 0 0
          0 0 0 0 0 0 0 0 0 0 0 0
          0 0 0 0 0 0 0 0 0 0 0 0
          0 0 0 0 0 0 0 0 0 0 0 0
          0 0 0 0 0 0 0 0 0 0 0 0
          0 0 0 0 0 0 0 0 0 0 0 0
          0 0 0 0 0 0 0 0 0 0 0 0
          0 0 0 0 0 0 0 0 0 0 0 0
          0 0 0 0 0 0 0 0 0 0 0 0
          0 0 0 0 0 0 0 0 0 0 0 0
          0 0 0 0 0 0 0 0 0 0 0 0
          0 0 0 0 0 0 0 0 0 0 0 0
          0 0 0 0 0 0 0 0 0 0 0 0
          0 0 0 0 0 0 0 0 0 0 0 0
          0 0 0 0 0 0 0 0 0 0 0 0
          0 0 0 0 0 0 0 0 0 0 0 0
          0 0 0 0 0 0 0 0 0 0 0 0
          0 0 0 0 0 0 0 0 0 0 0 0
          0 0 0 0 0 0 0 0 0 0 0 0
          0 0 0 0 0 0 0 0 0 0 0 0
          0 0 0 0 0 0 0 0 0 0 0 0
          0 0 0 0 0 0 0 0 0 0 0 0
          0 0 0 0 0 0 0 0 0 0 0 0
          0 0 0 0 0 0 0 0 0 0 0 0
          0 0 0 0 0 0 0 0 0 0 0 0
          0 0 0 0 0 0 0 0 0 0 0 0
          0 0 0 0 0 0 0 0 0 0 0 0
          0 0 0 0 0 0 0 0 0 0 0 0
          0 0 0 0 0 0 0 0 0 0 0 0
          0 0 0 0 0 0 0 0 0 0 0 0
          0 0 0 0 0 0 0 0 0 0 0 0
          0 0 0 0 0 0 0 0 0 0 0 0
          0 0 0 0 0 0 0 0 0 0 0 0
          0 0 0 0 0 0 0 0 0 0 0 0
          0 0 0 0 0 0 0 0 0 0 0 0
          0 0 0 0 0 0 0 0 0 0 0 0
          0 0 0 0 0 0 0 0 0 0 0 0
          0 0 0 0 0 0 0 0 0 0 0 0
          0 0 0 0 0 0 0 0 0 0 0 0
          0 0 0 0 0 0 0 0 0 0 0 0
          0 0 0 0 0 0 0 0 0 0 0 0
          0 0 0 0 0 0 0 0 0 0 0 0
          0 0 0 0 0 0 0 0 0 0 0 0
          0 0 0 0 0 0 0 0 0 0 0 0
          0 0 0 0 0 0 0 0 0 0 0 0
          0 0 0 0 0 0 0 0 0 0 0 0
          0 0 0 0 0 0 0 0 0 0 0 0
          0 0 0 0 0 0 0 0 0 0 0 0
          0 0 0 0 0 0 0 0 0 0 0 0
          0 0 0 0 0 0 0 0 0 0 0 0
          0 0 0 0 0 0 0 0 0 0 0 0
          0 0 0 0 0 0 0 0 0 0 0 0
          0 0 0 0 0 0 0 0 0 0 0 0
          0 0 0 0 0 0 0 0 0 0 0 0
          0 0 0 0 0 0 0 0 0 0 0 0
          0 0 0 0 0 0 0 0 0 0 0 0
          0 0 0 0 0 0 0 0 0 0 0 0
          0 0 0 0 0 0 0 0 0 0 0 0
          0 0 0 0 0 0 0 0 0 0 0 0
          0 0 0 0 0 0 0 0 0 0 0 0
          0 0 0 0
        </DataArray>
        <DataArray type="Float32" Name="X^tracer_0" NumberOfComponents="1" format="ascii">
          0 0 0 0 0 0 0 0 0 0 0 0
          0 0 0 0 0 0 0 0 0 0 0 0
          0 0 0 0 0 0 0 0 0 0 0 0
          0 0 0 0 0 0 0 0 0 0 0 0
          0 0 0 0 0 0 0 0 0 0 0 0
          0 0 0 0 0 0 0 0 0 0 0 0
          0 0 0 0 0 0 0 0 0 0 0 0
          0 0 0 0 0 0 0 0 0 0 0 0
          0 0 0 0 0 0 0 0 0 0 0 0
          0 0 0 0 0 0 0 0 0 0 0 0
          0 0 0 0 0 0 0 0 0 0 0 0
          0 0 0 0 0 0 0 0 0 0 0 0
          0 0 0 0 0 0 0 0 0 0 0 0
          0 0 0 0 0 0 0 0 0 0 0 0
          0 0 0 0 0 0 0 0 0 0 0 0
          0 0 0 0 0 0 0 0 0 0 0 0
          0 0 0 0 0 0 0 0 0 0 0 0
          0 0 0 0 0 0 0 0 0 0 0 0
          0 0 0 0 0 0 0 0 0 0 0 0
          0 0 0 0 0 0 0 0 0 0 0 0
          0 0 0 0 0 0 0 0 0 0 0 0
          0 0 0 0 0 0 0 0 0 0 0 0
          0 0 0 0 0 0 0 0 0 0 0 0
          0 0 0 0 0 0 0 0 0 0 0 0
          0 0 0 0 0 0 0 0 0 0 0 0
          0 0 0 0 0 0 0 0 0 0 0 0
          0 0 0 0 0 0 0 0 0 0 0 0
          0 0 0 0 0 0 0 0 0 0 0 0
          0 0 0 0 0 0 0 0 0 0 0 0
          0 0 0 0 0 0 0 0 0 0 0 0
          0 0 0 0 0 0 0 0 0 0 0 0
          0 0 0 0 0 0 0 0 0 0 0 0
          0 0 0 0 0 0 0 0 0 0 0 0
          0 0 0 0 0 0 0 0 0 0 0 0
          0 0 0 0 0 0 0 0 0 0 0 0
          0 0 0 0 0 0 0 0 0 0 0 0
          0 0 0 0 0 0 0 0 0 0 0 0
          0 0 0 0 0 0 0 0 0 0 0 0
          0 0 0 0 0 0 0 0 0 0 0 0
          0 0 0 0 0 0 0 0 0 0 0 0
          0 0 0 0 0 0 0 0 0 0 0 0
          0 0 0 0 0 0 0 0 0 0 0 0
          0 0 0 0 0 0 0 0 0 0 0 0
          0 0 0 0 0 0 0 0 0 0 0 0
          0 0 0 0 0 0 0 0 0 0 0 0
          0 0 0 0 0 0 0 0 0 0 0 0
          0 0 0 0 0 0 0 0 0 0 0 0
          0 0 0 0 0 0 0 0 0 0 0 0
          0 0 0 0 0 0 0 0 0 0 0 0
          0 0 0 0 0 0 0 0 0 0 0 0
          0 0 0 0 0 0 0 0 0 0 0 0
          0 0 0 0 0 0 0 0 0 0 0 0
          0 0 0 0 0 0 0 0 0 0 0 0
          0 0 0 0 0 0 0 0 0 0 0 0
          0 0 0 0 0 0 0 0 0 0 0 0
          0 0 0 0 0 0 0 0 0 0 0 0
          0 0 0 0 0 0 0 0 0 0 0 0
          0 0 0 0 0 0 0 0 0 0 0 0
          0 0 0 0 0 0 0 0 0 0 0 0
          0 0 0 0 0 0 0 0 0 0 0 0
          0 0 0 0 0 0 0 0 0 0 0 0
          0 0 0 0 0 0 0 0 0 0 0 0
          0 0 0 0 0 0 0 0 0 0 0 0
          0 0 0 0 0 0 0 0 0 0 0 0
          0 0 0 0 0 0 0 0 0 0 0 0
          0 0 0 0 0 0 0 0 0 0 0 0
          0 0 0 0 0 0 0 0 0 0 0 0
          0 0 0 0 0 0 0 0 0 0 0 0
          0 0 0 0 0 0 0 0 0 0 0 0
          0 0 0 0 0 0 0 0 0 0 0 0
          0 0 0 0 0 0 0 0 0 0 0 0
          0 0 0 0 0 0 0 0 0 0 0 0
          0 0 0 0 0 0 0 0 0 0 0 0
          0 0 0 0 0 0 0 0 0 0 0 0
          0 0 0 0 0 0 0 0 0 0 0 0
          0 0 0 0 0 0 0 0 0 0 0 0
          0 0 0 0 0 0 0 0 0 0 0 0
          0 0 0 0 0 0 0 0 0 0 0 0
          0 0 0 0 0 0 0 0 0 0 0 0
          0 0 0 0 0 0 0 0 0 0 0 0
          0 0 0 0 0 0 0 0 0 0 0 0
          0 0 0 0 0 0 0 0 0 0 0 0
          0 0 0 0 0 0 0 0 0 0 0 0
          0 0 0 0
        </DataArray>
        <DataArray type="Float32" Name="rho" NumberOfComponents="1" format="ascii">
          1 1 1 1 1 1 1 1 1 1 1 1
          1 1 1 1 1 1 1 1 1 1 1 1
          1 1 1 1 1 1 1 1 1 1 1 1
          1 1 1 1 1 1 1 1 1 1 1 1
          1 1 1 1 1 1 1 1 1 1 1 1
          1 1 1 1 1 1 1 1 1 1 1 1
          1 1 1 1 1 1 1 1 1 1 1 1
          1 1 1 1 1 1 1 1 1 1 1 1
          1 1 1 1 1 1 1 1 1 1 1 1
          1 1 1 1 1 1 1 1 1 1 1 1
          1 1 1 1 1 1 1 1 1 1 1 1
          1 1 1 1 1 1 1 1 1 1 1 1
          1 1 1 1 1 1 1 1 1 1 1 1
          1 1 1 1 1 1 1 1 1 1 1 1
          1 1 1 1 1 1 1 1 1 1 1 1
          1 1 1 1 1 1 1 1 1 1 1 1
          1 1 1 1 1 1 1 1 1 1 1 1
          1 1 1 1 1 1 1 1 1 1 1 1
          1 1 1 1 1 1 1 1 1 1 1 1
          1 1 1 1 1 1 1 1 1 1 1 1
          1 1 1 1 1 1 1 1 1 1 1 1
          1 1 1 1 1 1 1 1 1 1 1 1
          1 1 1 1 1 1 1 1 1 1 1 1
          1 1 1 1 1 1 1 1 1 1 1 1
          1 1 1 1 1 1 1 1 1 1 1 1
          1 1 1 1 1 1 1 1 1 1 1 1
          1 1 1 1 1 1 1 1 1 1 1 1
          1 1 1 1 1 1 1 1 1 1 1 1
          1 1 1 1 1 1 1 1 1 1 1 1
          1 1 1 1 1 1 1 1 1 1 1 1
          1 1 1 1 1 1 1 1 1 1 1 1
          1 1 1 1 1 1 1 1 1 1 1 1
          1 1 1 1 1 1 1 1 1 1 1 1
          1 1 1 1 1 1 1 1 1 1 1 1
          1 1 1 1 1 1 1 1 1 1 1 1
          1 1 1 1 1 1 1 1 1 1 1 1
          1 1 1 1 1 1 1 1 1 1 1 1
          1 1 1 1 1 1 1 1 1 1 1 1
          1 1 1 1 1 1 1 1 1 1 1 1
          1 1 1 1 1 1 1 1 1 1 1 1
          1 1 1 1 1 1 1 1 1 1 1 1
          1 1 1 1 1 1 1 1 1 1 1 1
          1 1 1 1 1 1 1 1 1 1 1 1
          1 1 1 1 1 1 1 1 1 1 1 1
          1 1 1 1 1 1 1 1 1 1 1 1
          1 1 1 1 1 1 1 1 1 1 1 1
          1 1 1 1 1 1 1 1 1 1 1 1
          1 1 1 1 1 1 1 1 1 1 1 1
          1 1 1 1 1 1 1 1 1 1 1 1
          1 1 1 1 1 1 1 1 1 1 1 1
          1 1 1 1 1 1 1 1 1 1 1 1
          1 1 1 1 1 1 1 1 1 1 1 1
          1 1 1 1 1 1 1 1 1 1 1 1
          1 1 1 1 1 1 1 1 1 1 1 1
          1 1 1 1 1 1 1 1 1 1 1 1
          1 1 1 1 1 1 1 1 1 1 1 1
          1 1 1 1 1 1 1 1 1 1 1 1
          1 1 1 1 1 1 1 1 1 1 1 1
          1 1 1 1 1 1 1 1 1 1 1 1
          1 1 1 1 1 1 1 1 1 1 1 1
          1 1 1 1 1 1 1 1 1 1 1 1
          1 1 1 1 1 1 1 1 1 1 1 1
          1 1 1 1 1 1 1 1 1 1 1 1
          1 1 1 1 1 1 1 1 1 1 1 1
          1 1 1 1 1 1 1 1 1 1 1 1
          1 1 1 1 1 1 1 1 1 1 1 1
          1 1 1 1 1 1 1 1 1 1 1 1
          1 1 1 1 1 1 1 1 1 1 1 1
          1 1 1 1 1 1 1 1 1 1 1 1
          1 1 1 1 1 1 1 1 1 1 1 1
          1 1 1 1 1 1 1 1 1 1 1 1
          1 1 1 1 1 1 1 1 1 1 1 1
          1 1 1 1 1 1 1 1 1 1 1 1
          1 1 1 1 1 1 1 1 1 1 1 1
          1 1 1 1 1 1 1 1 1 1 1 1
          1 1 1 1 1 1 1 1 1 1 1 1
          1 1 1 1 1 1 1 1 1 1 1 1
          1 1 1 1 1 1 1 1 1 1 1 1
          1 1 1 1 1 1 1 1 1 1 1 1
          1 1 1 1 1 1 1 1 1 1 1 1
          1 1 1 1 1 1 1 1 1 1 1 1
          1 1 1 1 1 1 1 1 1 1 1 1
          1 1 1 1 1 1 1 1 1 1 1 1
          1 1 1 1
        </DataArray>
        <DataArray type="Float32" Name="process rank" NumberOfComponents="1" format="ascii">
          0 0 0 0 0 0 0 0 0 0 0 0
          0 0 0 0 0 0 0 0 0 0 0 0
          0 0 0 0 0 0 0 0 0 0 0 0
          0 0 0 0 0 0 0 0 0 0 0 0
          0 0 0 0 0 0 0 0 0 0 0 0
          0 0 0 0 0 0 0 0 0 0 0 0
          0 0 0 0 0 0 0 0 0 0 0 0
          0 0 0 0 0 0 0 0 0 0 0 0
          0 0 0 0 0 0 0 0 0 0 0 0
          0 0 0 0 0 0 0 0 0 0 0 0
          0 0 0 0 0 0 0 0 0 0 0 0
          0 0 0 0 0 0 0 0 0 0 0 0
          0 0 0 0 0 0 0 0 0 0 0 0
          0 0 0 0 0 0 0 0 0 0 0 0
          0 0 0 0 0 0 0 0 0 0 0 0
          0 0 0 0 0 0 0 0 0 0 0 0
          0 0 0 0 0 0 0 0 0 0 0 0
          0 0 0 0 0 0 0 0 0 0 0 0
          0 0 0 0 0 0 0 0 0 0 0 0
          0 0 0 0 0 0 0 0 0 0 0 0
          0 0 0 0 0 0 0 0 0 0 0 0
          0 0 0 0 0 0 0 0 0 0 0 0
          0 0 0 0 0 0 0 0 0 0 0 0
          0 0 0 0 0 0 0 0 0 0 0 0
          0 0 0 0 0 0 0 0 0 0 0 0
          0 0 0 0 0 0 0 0 0 0 0 0
          0 0 0 0 0 0 0 0 0 0 0 0
          0 0 0 0 0 0 0 0 0 0 0 0
          0 0 0 0 0 0 0 0 0 0 0 0
          0 0 0 0 0 0 0 0 0 0 0 0
          0 0 0 0 0 0 0 0 0 0 0 0
          0 0 0 0 0 0 0 0 0 0 0 0
          0 0 0 0 0 0 0 0 0 0 0 0
          0 0 0 0 0 0 0 0 0 0 0 0
          0 0 0 0 0 0 0 0 0 0 0 0
          0 0 0 0 0 0 0 0 0 0 0 0
          0 0 0 0 0 0 0 0 0 0 0 0
          0 0 0 0 0 0 0 0 0 0 0 0
          0 0 0 0 0 0 0 0 0 0 0 0
          0 0 0 0 0 0 0 0 0 0 0 0
          0 0 0 0 0 0 0 0 0 0 0 0
          0 0 0 0 0 0 0 0 0 0 0 0
          0 0 0 0 0 0 0 0 0 0 0 0
          0 0 0 0 0 0 0 0 0 0 0 0
          0 0 0 0 0 0 0 0 0 0 0 0
          0 0 0 0 0 0 0 0 0 0 0 0
          0 0 0 0 0 0 0 0 0 0 0 0
          0 0 0 0 0 0 0 0 0 0 0 0
          0 0 0 0 0 0 0 0 0 0 0 0
          0 0 0 0 0 0 0 0 0 0 0 0
          0 0 0 0 0 0 0 0 0 0 0 0
          0 0 0 0 0 0 0 0 0 0 0 0
          0 0 0 0 0 0 0 0 0 0 0 0
          0 0 0 0 0 0 0 0 0 0 0 0
          0 0 0 0 0 0 0 0 0 0 0 0
          0 0 0 0 0 0 0 0 0 0 0 0
          0 0 0 0 0 0 0 0 0 0 0 0
          0 0 0 0 0 0 0 0 0 0 0 0
          0 0 0 0 0 0 0 0 0 0 0 0
          0 0 0 0 0 0 0 0 0 0 0 0
          0 0 0 0 0 0 0 0 0 0 0 0
          0 0 0 0 0 0 0 0 0 0 0 0
          0 0 0 0 0 0 0 0 0 0 0 0
          0 0 0 0 0 0 0 0 0 0 0 0
          0 0 0 0 0 0 0 0 0 0 0 0
          0 0 0 0 0 0 0 0 0 0 0 0
          0 0 0 0 0 0 0 0 0 0 0 0
          0 0 0 0 0 0 0 0 0 0 0 0
          0 0 0 0 0 0 0 0 0 0 0 0
          0 0 0 0 0 0 0 0 0 0 0 0
          0 0 0 0 0 0 0 0 0 0 0 0
          0 0 0 0 0 0 0 0 0 0 0 0
          0 0 0 0 0 0 0 0 0 0 0 0
          0 0 0 0 0 0 0 0 0 0 0 0
          0 0 0 0 0 0 0 0 0 0 0 0
          0 0 0 0 0 0 0 0 0 0 0 0
          0 0 0 0 0 0 0 0 0 0 0 0
          0 0 0 0 0 0 0 0 0 0 0 0
          0 0 0 0 0 0 0 0 0 0 0 0
          0 0 0 0 0 0 0 0 0 0 0 0
          0 0 0 0 0 0 0 0 0 0 0 0
          0 0 0 0 0 0 0 0 0 0 0 0
          0 0 0 0 0 0 0 0 0 0 0 0
          0 0 0 0
        </DataArray>
      </CellData>
      <Points>
        <DataArray type="Float32" Name="Coordinates" NumberOfComponents="3" format="ascii">
          0 10 3.33333 10 10 3.33333 0 0 3.33333 10 0 3.33333
          0 10 0 10 10 0 0 0 0 10 0 0
          0 10 6.66667 10 10 6.66667 0 0 6.66667 10 0 6.66667
          0 10 10 10 10 10 0 0 10 10 0 10
          20 10 3.33333 20 0 3.33333 20 10 0 20 0 0
          20 10 6.66667 20 0 6.66667 30 10 3.33333 30 0 3.33333
          30 10 0 30 0 0 30 10 6.66667 30 0 6.66667
          20 10 10 20 0 10 30 10 10 30 0 10
          0 20 3.33333 10 20 3.33333 0 20 0 10 20 0
          0 20 6.66667 10 20 6.66667 0 30 3.33333 10 30 3.33333
          0 30 0 10 30 0 0 30 6.66667 10 30 6.66667
          0 20 10 10 20 10 0 30 10 10 30 10
          20 20 3.33333 20 20 0 20 20 6.66667 30 20 3.33333
          30 20 0 30 20 6.66667 20 30 3.33333 20 30 0
          20 30 6.66667 30 30 3.33333 30 30 0 30 30 6.66667
          20 20 10 30 20 10 20 30 10 30 30 10
          10 10 31.3333 10 0 31.3333 0 10 33.3333 0 0 33.3333
          20 10 29.3333 20 0 29.3333 30 10 27.3333 30 0 27.3333
          10 20 31.3333 0 20 33.3333 10 30 31.3333 0 30 33.3333
          20 20 29.3333 30 20 27.3333 20 30 29.3333 30 30 27.3333
          40 10 3.33333 40 0 3.33333 40 10 0 40 0 0
          40 10 6.66667 40 0 6.66667 40 10 10 40 0 10
          50 10 3.33333 50 0 3.33333 50 10 0 50 0 0
          50 10 6.66667 50 0 6.66667 50 10 10 50 0 10
          40 20 3.33333 40 20 0 40 20 6.66667 40 30 3.33333
          40 30 0 40 30 6.66667 40 20 10 40 30 10
          50 20 3.33333 50 20 0 50 20 6.66667 50 30 3.33333
          50 30 0 50 30 6.66667 50 20 10 50 30 10
          40 10 25.3333 40 0 25.3333 50 10 23.3333 50 0 23.3333
          40 20 25.3333 40 30 25.3333 50 20 23.3333 50 30 23.3333
          0 40 3.33333 10 40 3.33333 0 40 0 10 40 0
          0 40 6.66667 10 40 6.66667 0 40 10 10 40 10
          20 40 3.33333 20 40 0 20 40 6.66667 30 40 3.33333
          30 40 0 30 40 6.66667 20 40 10 30 40 10
          0 50 3.33333 10 50 3.33333 0 50 0 10 50 0
          0 50 6.66667 10 50 6.66667 0 50 10 10 50 10
          20 50 3.33333 20 50 0 20 50 6.66667 30 50 3.33333
          30 50 0 30 50 6.66667 20 50 10 30 50 10
          10 40 31.3333 0 40 33.3333 20 40 29.3333 30 40 27.3333
          10 50 31.3333 0 50 33.3333 20 50 29.3333 30 50 27.3333
          40 40 3.33333 40 40 0 40 40 6.66667 40 40 10
          50 40 3.33333 50 40 0 50 40 6.66667 50 40 10
          40 50 3.33333 40 50 0 40 50 6.66667 40 50 10
          50 50 3.33333 50 50 0 50 50 6.66667 50 50 10
          40 40 25.3333 50 40 23.3333 40 50 25.3333 50 50 23.3333
          30 10 44.6667 30 0 44.6667 20 10 48.6667 20 0 48.6667
          30 20 44.6667 20 20 48.6667 30 30 44.6667 20 30 48.6667
          10 10 52.6667 10 0 52.6667 0 10 56.6667 0 0 56.6667
          10 20 52.6667 0 20 56.6667 10 30 52.6667 0 30 56.6667
          40 10 40.6667 40 0 40.6667 50 10 36.6667 50 0 36.6667
          40 20 40.6667 40 30 40.6667 50 20 36.6667 50 30 36.6667
          50 10 50 50 0 50 40 10 56 40 0 56
          50 20 50 40 20 56 50 30 50 40 30 56
          30 40 44.6667 20 40 48.6667 30 50 44.6667 20 50 48.6667
          10 40 52.6667 0 40 56.6667 10 50 52.6667 0 50 56.6667
          40 40 40.6667 50 40 36.6667 40 50 40.6667 50 50 36.6667
          50 40 50 40 40 56 50 50 50 40 50 56
          60 10 3.33333 60 0 3.33333 60 10 0 60 0 0
          60 10 6.66667 60 0 6.66667 60 10 10 60 0 10
          70 10 3.33333 70 0 3.33333 70 10 0 70 0 0
          70 10 6.66667 70 0 6.66667 80 10 3.33333 80 0 3.33333
          80 10 0 80 0 0 80 10 6.66667 80 0 6.66667
          70 10 10 70 0 10 80 10 10 80 0 10
          60 20 3.33333 60 20 0 60 20 6.66667 60 30 3.33333
          60 30 0 60 30 6.66667 60 20 10 60 30 10
          70 20 3.33333 70 20 0 70 20 6.66667 80 20 3.33333
          80 20 0 80 20 6.66667 70 30 3.33333 70 30 0
          70 30 6.66667 80 30 3.33333 80 30 0 80 30 6.66667
          70 20 10 80 20 10 70 30 10 80 30 10
          60 10 21.3333 60 0 21.3333 70 10 19.3333 70 0 19.3333
          80 10 17.3333 80 0 17.3333 80 10 24.6667 80 0 24.6667
          70 10 28.6667 70 0 28.6667 60 20 21.3333 60 30 21.3333
          70 20 19.3333 80 20 17.3333 70 30 19.3333 80 30 17.3333
          80 20 24.6667 70 20 28.6667 80 30 24.6667 70 30 28.6667
          90 10 3.33333 90 0 3.33333 90 10 0 90 0 0
          90 10 6.66667 90 0 6.66667 90 10 10 90 0 10
          100 10 3.33333 100 0 3.33333 100 10 0 100 0 0
          100 10 6.66667 100 0 6.66667 100 10 10 100 0 10
          100 10 13.3333 100 0 13.3333 90 10 15.3333 90 0 15.3333
          90 20 3.33333 90 20 0 90 20 6.66667 90 30 3.33333
          90 30 0 90 30 6.66667 90 20 10 90 30 10
          100 20 3.33333 100 20 0 100 20 6.66667 100 30 3.33333
          100 30 0 100 30 6.66667 100 20 10 100 20 13.3333
          90 20 15.3333 100 30 10 100 30 13.3333 90 30 15.3333
          90 10 20.6667 90 0 20.6667 100 10 16.6667 100 0 16.6667
          100 10 20 100 0 20 90 10 26 90 0 26
          90 20 20.6667 90 30 20.6667 100 20 16.6667 100 30 16.6667
          100 20 20 90 20 26 100 30 20 90 30 26
          60 40 3.33333 60 40 0 60 40 6.66667 60 40 10
          70 40 3.33333 70 40 0 70 40 6.66667 80 40 3.33333
          80 40 0 80 40 6.66667 70 40 10 80 40 10
          60 50 3.33333 60 50 0 60 50 6.66667 60 50 10
          70 50 3.33333 70 50 0 70 50 6.66667 80 50 3.33333
          80 50 0 80 50 6.66667 70 50 10 80 50 10
          60 40 21.3333 70 40 19.3333 80 40 17.3333 80 40 24.6667
          70 40 28.6667 60 50 21.3333 70 50 19.3333 80 50 17.3333
          80 50 24.6667 70 50 28.6667 90 40 3.33333 90 40 0
          90 40 6.66667 90 40 10 100 40 3.33333 100 40 0
          100 40 6.66667 100 40 10 100 40 13.3333 90 40 15.3333
          90 50 3.33333 90 50 0 90 50 6.66667 90 50 10
          100 50 3.33333 100 50 0 100 50 6.66667 100 50 10
          100 50 13.3333 90 50 15.3333 90 40 20.6667 100 40 16.6667
          100 40 20 90 40 26 90 50 20.6667 100 50 16.6667
          100 50 20 90 50 26 60 10 32.6667 60 0 32.6667
          80 10 32 80 0 32 70 10 38 70 0 38
          60 10 44 60 0 44 60 20 32.6667 60 30 32.6667
          80 20 32 70 20 38 80 30 32 70 30 38
          60 20 44 60 30 44 80 10 49 80 0 49
          70 10 53.5 70 0 53.5 60 10 58 60 0 58
          80 20 49 70 20 53.5 80 30 49 70 30 53.5
          60 20 58 60 30 58 100 10 40 100 0 40
          90 10 44.5 90 0 44.5 100 20 40 90 20 44.5
          100 30 40 90 30 44.5 60 40 32.6667 80 40 32
          70 40 38 60 40 44 60 50 32.6667 80 50 32
          70 50 38 60 50 44 80 40 49 70 40 53.5
          60 40 58 80 50 49 70 50 53.5 60 50 58
          100 40 40 90 40 44.5 100 50 40 90 50 44.5
          0 60 3.33333 10 60 3.33333 0 60 0 10 60 0
          0 60 6.66667 10 60 6.66667 0 60 10 10 60 10
          20 60 3.33333 20 60 0 20 60 6.66667 30 60 3.33333
          30 60 0 30 60 6.66667 20 60 10 30 60 10
          0 70 3.33333 10 70 3.33333 0 70 0 10 70 0
          0 70 6.66667 10 70 6.66667 0 80 3.33333 10 80 3.33333
          0 80 0 10 80 0 0 80 6.66667 10 80 6.66667
          0 70 10 10 70 10 0 80 10 10 80 10
          20 70 3.33333 20 70 0 20 70 6.66667 30 70 3.33333
          30 70 0 30 70 6.66667 20 80 3.33333 20 80 0
          20 80 6.66667 30 80 3.33333 30 80 0 30 80 6.66667
          20 70 10 30 70 10 20 80 10 30 80 10
          10 60 31.3333 0 60 33.3333 20 60 29.3333 30 60 27.3333
          10 70 31.3333 0 70 33.3333 10 80 31.3333 0 80 33.3333
          20 70 29.3333 30 70 27.3333 20 80 29.3333 30 80 27.3333
          40 60 3.33333 40 60 0 40 60 6.66667 40 60 10
          50 60 3.33333 50 60 0 50 60 6.66667 50 60 10
          40 70 3.33333 40 70 0 40 70 6.66667 40 80 3.33333
          40 80 0 40 80 6.66667 40 70 10 40 80 10
          50 70 3.33333 50 70 0 50 70 6.66667 50 80 3.33333
          50 80 0 50 80 6.66667 50 70 10 50 80 10
          40 60 25.3333 50 60 23.3333 40 70 25.3333 40 80 25.3333
          50 70 23.3333 50 80 23.3333 0 90 3.33333 10 90 3.33333
          0 90 0 10 90 0 0 90 6.66667 10 90 6.66667
          0 90 10 10 90 10 20 90 3.33333 20 90 0
          20 90 6.66667 30 90 3.33333 30 90 0 30 90 6.66667
          20 90 10 30 90 10 0 100 3.33333 10 100 3.33333
          0 100 0 10 100 0 0 100 6.66667 10 100 6.66667
          0 100 10 10 100 10 20 100 3.33333 20 100 0
          20 100 6.66667 30 100 3.33333 30 100 0 30 100 6.66667
          20 100 10 30 100 10 10 90 31.3333 0 90 33.3333
          20 90 29.3333 30 90 27.3333 10 100 31.3333 0 100 33.3333
          20 100 29.3333 30 100 27.3333 40 90 3.33333 40 90 0
          40 90 6.66667 40 90 10 50 90 3.33333 50 90 0
          50 90 6.66667 50 90 10 40 100 3.33333 40 100 0
          40 100 6.66667 40 100 10 50 100 3.33333 50 100 0
          50 100 6.66667 50 100 10 40 90 25.3333 50 90 23.3333
          40 100 25.3333 50 100 23.3333 30 60 44.6667 20 60 48.6667
          30 70 44.6667 20 70 48.6667 30 80 44.6667 20 80 48.6667
          10 60 52.6667 0 60 56.6667 10 70 52.6667 0 70 56.6667
          10 80 52.6667 0 80 56.6667 40 60 40.6667 50 60 36.6667
          40 70 40.6667 40 80 40.6667 50 70 36.6667 50 80 36.6667
          50 60 50 40 60 56 50 70 50 40 70 56
          50 80 50 40 80 56 30 90 44.6667 20 90 48.6667
          30 100 44.6667 20 100 48.6667 10 90 52.6667 0 90 56.6667
          10 100 52.6667 0 100 56.6667 40 90 40.6667 50 90 36.6667
          40 100 40.6667 50 100 36.6667 50 90 50 40 90 56
          50 100 50 40 100 56 60 60 3.33333 60 60 0
          60 60 6.66667 60 60 10 70 60 3.33333 70 60 0
          70 60 6.66667 80 60 3.33333 80 60 0 80 60 6.66667
          70 60 10 80 60 10 60 70 3.33333 60 70 0
          60 70 6.66667 60 80 3.33333 60 80 0 60 80 6.66667
          60 70 10 60 80 10 70 70 3.33333 70 70 0
          70 70 6.66667 80 70 3.33333 80 70 0 80 70 6.66667
          70 80 3.33333 70 80 0 70 80 6.66667 80 80 3.33333
          80 80 0 80 80 6.66667 70 70 10 80 70 10
          70 80 10 80 80 10 60 60 21.3333 70 60 19.3333
          80 60 17.3333 80 60 24.6667 70 60 28.6667 60 70 21.3333
          60 80 21.3333 70 70 19.3333 80 70 17.3333 70 80 19.3333
          80 80 17.3333 80 70 24.6667 70 70 28.6667 80 80 24.6667
          70 80 28.6667 90 60 3.33333 90 60 0 90 60 6.66667
          90 60 10 100 60 3.33333 100 60 0 100 60 6.66667
          100 60 10 100 60 13.3333 90 60 15.3333 90 70 3.33333
          90 70 0 90 70 6.66667 90 80 3.33333 90 80 0
          90 80 6.66667 90 70 10 90 80 10 100 70 3.33333
          100 70 0 100 70 6.66667 100 80 3.33333 100 80 0
          100 80 6.66667 100 70 10 100 70 13.3333 90 70 15.3333
          100 80 10 100 80 13.3333 90 80 15.3333 90 60 20.6667
          100 60 16.6667 100 60 20 90 60 26 90 70 20.6667
          90 80 20.6667 100 70 16.6667 100 80 16.6667 100 70 20
          90 70 26 100 80 20 90 80 26 60 90 3.33333
          60 90 0 60 90 6.66667 60 90 10 70 90 3.33333
          70 90 0 70 90 6.66667 80 90 3.33333 80 90 0
          80 90 6.66667 70 90 10 80 90 10 60 100 3.33333
          60 100 0 60 100 6.66667 60 100 10 70 100 3.33333
          70 100 0 70 100 6.66667 80 100 3.33333 80 100 0
          80 100 6.66667 70 100 10 80 100 10 60 90 21.3333
          70 90 19.3333 80 90 17.3333 80 90 24.6667 70 90 28.6667
          60 100 21.3333 70 100 19.3333 80 100 17.3333 80 100 24.6667
          70 100 28.6667 90 90 3.33333 90 90 0 90 90 6.66667
          90 90 10 100 90 3.33333 100 90 0 100 90 6.66667
          100 90 10 100 90 13.3333 90 90 15.3333 90 100 3.33333
          90 100 0 90 100 6.66667 90 100 10 100 100 3.33333
          100 100 0 100 100 6.66667 100 100 10 100 100 13.3333
          90 100 15.3333 90 90 20.6667 100 90 16.6667 100 90 20
          90 90 26 90 100 20.6667 100 100 16.6667 100 100 20
          90 100 26 60 60 32.6667 80 60 32 70 60 38
          60 60 44 60 70 32.6667 60 80 32.6667 80 70 32
          70 70 38 80 80 32 70 80 38 60 70 44
          60 80 44 80 60 49 70 60 53.5 60 60 58
          80 70 49 70 70 53.5 80 80 49 70 80 53.5
          60 70 58 60 80 58 100 60 40 90 60 44.5
          100 70 40 90 70 44.5 100 80 40 90 80 44.5
          60 90 32.6667 80 90 32 70 90 38 60 90 44
          60 100 32.6667 80 100 32 70 100 38 60 100 44
          80 90 49 70 90 53.5 60 90 58 80 100 49
          70 100 53.5 60 100 58 100 90 40 90 90 44.5
          100 100 40 90 100 44.5 30 10 62 30 0 62
          20 10 68 20 0 68 10 10 74 10 0 74
          30 20 62 20 20 68 30 30 62 20 30 68
          10 20 74 10 30 74 0 10 80 0 0 80
          20 10 76 20 0 76 10 10 80.5 10 0 80.5
          30 10 71.5 30 0 71.5 0 20 80 0 30 80
          20 20 76 10 20 80.5 30 20 71.5 20 30 76
          10 30 80.5 30 30 71.5 50 10 62.5 50 0 62.5
          40 10 67 40 0 67 50 20 62.5 40 20 67
          50 30 62.5 40 30 67 40 10 78 40 0 78
          30 10 81 30 0 81 50 10 75 50 0 75
          40 20 78 30 20 81 40 30 78 30 30 81
          50 20 75 50 30 75 30 40 62 20 40 68
          10 40 74 30 50 62 20 50 68 10 50 74
          0 40 80 20 40 76 10 40 80.5 30 40 71.5
          0 50 80 20 50 76 10 50 80.5 30 50 71.5
          50 40 62.5 40 40 67 50 50 62.5 40 50 67
          40 40 78 30 40 81 50 40 75 40 50 78
          30 50 81 50 50 75 0 10 85 0 0 85
          10 10 87 10 0 87 0 10 90 0 0 90
          20 10 84 20 0 84 20 0 92 20 10 92
          30 0 90.5 30 10 90.5 0 20 85 0 30 85
          10 20 87 0 20 90 10 30 87 0 30 90
          20 20 84 20 30 84 20 20 92 30 20 90.5
          20 30 92 30 30 90.5 0 0 95 0 10 95
          10 0 93.5 10 10 93.5 0 0 100 0 10 100
          10 0 100 10 10 100 20 0 100 20 10 100
          30 0 100 30 10 100 0 20 95 10 20 93.5
          0 30 95 10 30 93.5 0 20 100 10 20 100
          0 30 100 10 30 100 20 20 100 30 20 100
          20 30 100 30 30 100 40 0 89 40 10 89
          50 0 87.5 50 10 87.5 40 20 89 40 30 89
          50 20 87.5 50 30 87.5 40 0 100 40 10 100
          50 0 100 50 10 100 40 20 100 40 30 100
          50 20 100 50 30 100 0 40 85 10 40 87
          0 40 90 20 40 84 20 40 92 30 40 90.5
          0 50 85 10 50 87 0 50 90 20 50 84
          20 50 92 30 50 90.5 0 40 95 10 40 93.5
          0 40 100 10 40 100 20 40 100 30 40 100
          0 50 95 10 50 93.5 0 50 100 10 50 100
          20 50 100 30 50 100 40 40 89 50 40 87.5
          40 50 89 50 50 87.5 40 40 100 50 40 100
          40 50 100 50 50 100 80 10 66 80 0 66
          70 10 69 70 0 69 80 20 66 70 20 69
          80 30 66 70 30 69 60 10 72 60 0 72
          60 20 72 60 30 72 90 10 63 90 0 63
          100 10 60 100 0 60 90 20 63 90 30 63
          100 20 60 100 30 60 80 0 83 80 10 83
          90 0 81.5 90 10 81.5 100 0 80 100 10 80
          80 20 83 90 20 81.5 80 30 83 90 30 81.5
          100 20 80 100 30 80 80 40 66 70 40 69
          80 50 66 70 50 69 60 40 72 60 50 72
          90 40 63 100 40 60 90 50 63 100 50 60
          80 40 83 90 40 81.5 100 40 80 80 50 83
          90 50 81.5 100 50 80 60 0 86 60 10 86
          70 0 84.5 70 10 84.5 60 20 86 60 30 86
          70 20 84.5 70 30 84.5 60 0 100 60 10 100
          70 0 100 70 10 100 80 0 100 80 10 100
          60 20 100 60 30 100 70 20 100 80 20 100
          70 30 100 80 30 100 90 0 100 90 10 100
          100 0 100 100 10 100 90 20 100 90 30 100
          100 20 100 100 30 100 60 40 86 70 40 84.5
          60 50 86 70 50 84.5 60 40 100 70 40 100
          80 40 100 60 50 100 70 50 100 80 50 100
          90 40 100 100 40 100 90 50 100 100 50 100
          30 60 62 20 60 68 10 60 74 30 70 62
          20 70 68 30 80 62 20 80 68 10 70 74
          10 80 74 0 60 80 20 60 76 10 60 80.5
          30 60 71.5 0 70 80 0 80 80 20 70 76
          10 70 80.5 30 70 71.5 20 80 76 10 80 80.5
          30 80 71.5 50 60 62.5 40 60 67 50 70 62.5
          40 70 67 50 80 62.5 40 80 67 40 60 78
          30 60 81 50 60 75 40 70 78 30 70 81
          40 80 78 30 80 81 50 70 75 50 80 75
          30 90 62 20 90 68 10 90 74 30 100 62
          20 100 68 10 100 74 0 90 80 20 90 76
          10 90 80.5 30 90 71.5 0 100 80 20 100 76
          10 100 80.5 30 100 71.5 50 90 62.5 40 90 67
          50 100 62.5 40 100 67 40 90 78 30 90 81
          50 90 75 40 100 78 30 100 81 50 100 75
          0 60 85 10 60 87 0 60 90 20 60 84
          20 60 92 30 60 90.5 0 70 85 0 80 85
          10 70 87 0 70 90 10 80 87 0 80 90
          20 70 84 20 80 84 20 70 92 30 70 90.5
          20 80 92 30 80 90.5 0 60 95 10 60 93.5
          0 60 100 10 60 100 20 60 100 30 60 100
          0 70 95 10 70 93.5 0 80 95 10 80 93.5
          0 70 100 10 70 100 0 80 100 10 80 100
          20 70 100 30 70 100 20 80 100 30 80 100
          40 60 89 50 60 87.5 40 70 89 40 80 89
          50 70 87.5 50 80 87.5 40 60 100 50 60 100
          40 70 100 40 80 100 50 70 100 50 80 100
          0 90 85 10 90 87 0 90 90 20 90 84
          20 90 92 30 90 90.5 0 100 85 10 100 87
          0 100 90 20 100 84 20 100 92 30 100 90.5
          0 90 95 10 90 93.5 0 90 100 10 90 100
          20 90 100 30 90 100 0 100 95 10 100 93.5
          0 100 100 10 100 100 20 100 100 30 100 100
          40 90 89 50 90 87.5 40 100 89 50 100 87.5
          40 90 100 50 90 100 40 100 100 50 100 100
          80 60 66 70 60 69 80 70 66 70 70 69
          80 80 66 70 80 69 60 60 72 60 70 72
          60 80 72 90 60 63 100 60 60 90 70 63
          90 80 63 100 70 60 100 80 60 80 60 83
          90 60 81.5 100 60 80 80 70 83 90 70 81.5
          80 80 83 90 80 81.5 100 70 80 100 80 80
          80 90 66 70 90 69 80 100 66 70 100 69
          60 90 72 60 100 72 90 90 63 100 90 60
          90 100 63 100 100 60 80 90 83 90 90 81.5
          100 90 80 80 100 83 90 100 81.5 100 100 80
          60 60 86 70 60 84.5 60 70 86 60 80 86
          70 70 84.5 70 80 84.5 60 60 100 70 60 100
          80 60 100 60 70 100 60 80 100 70 70 100
          80 70 100 70 80 100 80 80 100 90 60 100
          100 60 100 90 70 100 90 80 100 100 70 100
          100 80 100 60 90 86 70 90 84.5 60 100 86
          70 100 84.5 60 90 100 70 90 100 80 90 100