<?xml version="1.0"?>
<VTKFile type="UnstructuredGrid" version="0.1" byte_order="LittleEndian">
  <UnstructuredGrid>
    <Piece NumberOfCells="100" NumberOfPoints="121">
      <CellData Scalars="p">
        <DataArray type="Float32" Name="p" NumberOfComponents="1" format="ascii">
          1 1 1 1 1 1 1 1 1 1 1 1
          1 1 1 1 1 1 1 1 1 1 1 1
          1 1 1 1 1 1 1 1 1 1 1 1
          1 1 1 1 1 1 1 1 1 1 1 1
          1 1 1 1 1 1 1 1 1 1 1 1
          1 1 1 1 1 1 1 1 1 1 1 1
          1 1 1 1 1 1 1 1 1 1 1 1
          1 1 1 1 1 1 1 1 1 1 1 1
          1 1 1 1
        </DataArray>
        <DataArray type="Float32" Name="process rank" NumberOfComponents="1" format="ascii">
          0 0 0 0 0 0 0 0 0 0 0 0
          0 0 0 0 0 0 0 0 0 0 0 0
          0 0 0 0 0 0 0 0 0 0 0 0
          0 0 0 0 0 0 0 0 0 0 0 0
          0 0 0 0 0 0 0 0 0 0 0 0
          0 0 0 0 0 0 0 0 0 0 0 0
          0 0 0 0 0 0 0 0 0 0 0 0
          0 0 0 0 0 0 0 0 0 0 0 0
          0 0 0 0
        </DataArray>
      </CellData>
      <Points>
        <DataArray type="Float32" Name="Coordinates" NumberOfComponents="3" format="ascii">
          90 0 26 100 0 20 90 10 26 100 10 20
          90 20 26 100 20 20 90 30 26 100 30 20
          80 0 32 80 10 32 80 20 32 80 30 32
          90 40 26 100 40 20 90 50 26 100 50 20
          80 40 32 80 50 32 70 0 38 70 10 38
          60 0 44 60 10 44 70 20 38 70 30 38
          60 20 44 60 30 44 50 0 50 50 10 50
          50 20 50 50 30 50 70 40 38 60 40 44
          70 50 38 60 50 44 50 40 50 50 50 50
          90 60 26 100 60 20 90 70 26 100 70 20
          90 80 26 100 80 20 80 60 32 80 70 32
          80 80 32 90 90 26 100 90 20 90 100 26
          100 100 20 80 90 32 80 100 32 70 60 38
          60 60 44 70 70 38 70 80 38 60 70 44
          60 80 44 50 60 50 50 70 50 50 80 50
          70 90 38 60 90 44 70 100 38 60 100 44
          50 90 50 50 100 50 20 0 68 30 0 62
          20 10 68 30 10 62 20 20 68 30 20 62
          20 30 68 30 30 62 40 0 56 40 10 56
          40 20 56 40 30 56 20 40 68 30 40 62
          20 50 68 30 50 62 40 40 56 40 50 56
          10 0 74 10 10 74 10 20 74 10 30 74
          0 0 80 0 10 80 0 20 80 0 30 80
          10 40 74 10 50 74 0 40 80 0 50 80
          20 60 68 30 60 62 20 70 68 30 70 62
          20 80 68 30 80 62 40 60 56 40 70 56
          40 80 56 20 90 68 30 90 62 20 100 68
          30 100 62 40 90 56 40 100 56 10 60 74
          10 70 74 10 80 74 0 60 80 0 70 80
          0 80 80 10 90 74 10 100 74 0 90 80
          0 100 80
        </DataArray>
      </Points>
      <Cells>
        <DataArray type="Int32" Name="connectivity" NumberOfComponents="1" format="ascii">
          0 1 3 2 2 3 5 4 4 5 7 6
          8 0 2 9 9 2 4 10 10 4 6 11
          6 7 13 12 12 13 15 14 11 6 12 16
          16 12 14 17 18 8 9 19 20 18 19 21
          19 9 10 22 22 10 11 23 21 19 22 24
          24 22 23 25 26 20 21 27 27 21 24 28
          28 24 25 29 23 11 16 30 25 23 30 31
          30 16 17 32 31 30 32 33 29 25 31 34
          34 31 33 35 14 15 37 36 36 37 39 38
          38 39 41 40 17 14 36 42 42 36 38 43
          43 38 40 44 40 41 46 45 45 46 48 47
          44 40 45 49 49 45 47 50 32 17 42 51
          33 32 51 52 51 42 43 53 53 43 44 54
          52 51 53 55 55 53 54 56 35 33 52 57
          57 52 55 58 58 55 56 59 54 44 49 60
          56 54 60 61 60 49 50 62 61 60 62 63
          59 56 61 64 64 61 63 65 66 67 69 68
          68 69 71 70 70 71 73 72 74 26 27 75
          75 27 28 76 76 28 29 77 67 74 75 69
          69 75 76 71 71 76 77 73 72 73 79 78
          78 79 81 80 77 29 34 82 82 34 35 83
          73 77 82 79 79 82 83 81 84 66 68 85
          85 68 70 86 86 70 72 87 88 84 85 89
          89 85 86 90 90 86 87 91 87 72 78 92
          92 78 80 93 91 87 92 94 94 92 93 95
          80 81 97 96 96 97 99 98 98 99 101 100
          83 35 57 102 102 57 58 103 103 58 59 104
          81 83 102 97 97 102 103 99 99 103 104 101
          100 101 106 105 105 106 108 107 104 59 64 109
          109 64 65 110 101 104 109 106 106 109 110 108
          93 80 96 111 111 96 98 112 112 98 100 113
          95 93 111 114 114 111 112 115 115 112 113 116
          113 100 105 117 117 105 107 118 116 113 117 119
          119 117 118 120
        </DataArray>
        <DataArray type="Int32" Name="offsets" NumberOfComponents="1" format="ascii">
          4 8 12 16 20 24 28 32 36 40 44 48
          52 56 60 64 68 72 76 80 84 88 92 96
          100 104 108 112 116 120 124 128 132 136 140 144
          148 152 156 160 164 168 172 176 180 184 188 192
          196 200 204 208 212 216 220 224 228 232 236 240
          244 248 252 256 260 264 268 272 276 280 284 288
          292 296 300 304 308 312 316 320 324 328 332 336
          340 344 348 352 356 360 364 368 372 376 380 384
          388 392 396 400
        </DataArray>
        <DataArray type="UInt8" Name="types" NumberOfComponents="1" format="ascii">
          9 9 9 9 9 9 9 9 9 9 9 9
          9 9 9 9 9 9 9 9 9 9 9 9
          9 9 9 9 9 9 9 9 9 9 9 9
          9 9 9 9 9 9 9 9 9 9 9 9
          9 9 9 9 9 9 9 9 9 9 9 9
          9 9 9 9 9 9 9 9 9 9 9 9
          9 9 9 9 9 9 9 9 9 9 9 9
          9 9 9 9 9 9 9 9 9 9 9 9
          9 9 9 9
        </DataArray>
      </Cells>
    </Piece>
  </UnstructuredGrid>
</VTKFile>
